version 2
run General-0-20230201-00:50:56-18772
attr configname General
attr datetime 20230201-00:50:56
attr experiment General
attr inifile omnetpp.ini
attr iterationvars ""
attr iterationvarsf ""
attr measurement ""
attr network ComputerNetwork
attr processid 18772
attr repetition 0
attr replication #0
attr resultdir results
attr runnumber 0
attr seedset 0

vector 0 ComputerNetwork totalDelay:vector ETV
attr source delay
0	1	0	37.440675115213
0	2	0	39.642230819445
0	3	37.440675115213	45.75946824858
0	4	39.642230819445	52.213287204504
0	5	83.200143363793	40.138168518897
0	6	91.855518023949	52.897280992474
0	7	123.33831188269	37.244158869144
0	8	144.752799016423	52.362586862873
0	9	160.582470751834	31.182739839423
0	10	191.765210591257	41.178184819873
0	11	197.115385879296	42.294705754612
0	12	232.94339541113	29.219085411169
0	13	239.410091633908	31.87936049886
0	14	262.162480822299	24.876730262768
0	15	271.289452132768	54.588650087826
0	16	287.039211085067	12.835648786277
0	17	299.874859871344	58.183138202876
0	18	325.878102220594	23.632814725861
0	19	349.510916946455	29.172076066025
0	20	358.05799807422	33.883255582768
0	21	378.68299301248	49.586251671426
0	22	391.941253656988	50.608436323237
0	23	428.269244683906	36.444746076595
0	24	442.549689980225	33.998858570121
0	25	464.713990760501	38.40222818777
0	26	476.548548550346	29.639239658136

